<?xml version="1.0"?>
<VTKFile type="UnstructuredGrid"  version="0.1"  >
<UnstructuredGrid>
<Piece  NumberOfPoints="16641" NumberOfCells="32768">
<Points>
<DataArray  type="Float64"  NumberOfComponents="3"  format="ascii">0 0 0  0.0078125 0 0  0.015625 0 0  0.0234375 0 0  0.03125 0 0  0.0390625 0 0  0.046875 0 0  0.0546875 0 0  0.0625 0 0  0.0703125 0 0  0.078125 0 0  0.0859375 0 0  0.09375 0 0  0.1015625 0 0  0.109375 0 0  0.1171875 0 0  0.125 0 0  0.1328125 0 0  0.140625 0 0  0.1484375 0 0  0.15625 0 0  0.1640625 0 0  0.171875 0 0  0.1796875 0 0  0.1875 0 0  0.1953125 0 0  0.203125 0 0  0.2109375 0 0  0.21875 0 0  0.2265625 0 0  0.234375 0 0  0.2421875 0 0  0.25 0 0  0.2578125 0 0  0.265625 0 0  0.2734375 0 0  0.28125 0 0  0.2890625 0 0  0.296875 0 0  0.3046875 0 0  0.3125 0 0  0.3203125 0 0  0.328125 0 0  0.3359375 0 0  0.34375 0 0  0.3515625 0 0  0.359375 0 0  0.3671875 0 0  0.375 0 0  0.3828125 0 0  0.390625 0 0  0.3984375 0 0  0.40625 0 0  0.4140625 0 0  0.421875 0 0  0.4296875 0 0  0.4375 0 0  0.4453125 0 0  0.453125 0 0  0.4609375 0 0  0.46875 0 0  0.4765625 0 0  0.484375 0 0  0.4921875 0 0  0.5 0 0  0.5078125 0 0  0.515625 0 0  0.5234375 0 0  0.53125 0 0  0.5390625 0 0  0.546875 0 0  0.5546875 0 0  0.5625 0 0  0.5703125 0 0  0.578125 0 0  0.5859375 0 0  0.59375 0 0  0.6015625 0 0  0.609375 0 0  0.6171875 0 0  0.625 0 0  0.6328125 0 0  0.640625 0 0  0.6484375 0 0  0.65625 0 0  0.6640625 0 0  0.671875 0 0  0.6796875 0 0  0.6875 0 0  0.6953125 0 0  0.703125 0 0  0.7109375 0 0  0.71875 0 0  0.7265625 0 0  0.734375 0 0  0.7421875 0 0  0.75 0 0  0.7578125 0 0  0.765625 0 0  0.7734375 0 0  0.78125 0 0  0.7890625 0 0  0.796875 0 0  0.8046875 0 0  0.8125 0 0  0.8203125 0 0  0.828125 0 0  0.8359375 0 0  0.84375 0 0  0.8515625 0 0  0.859375 0 0  0.8671875 0 0  0.875 0 0  0.8828125 0 0  0.890625 0 0  0.8984375 0 0  0.90625 0 0  0.9140625 0 0  0.921875 0 0  0.9296875 0 0  0.9375 0 0  0.9453125 0 0  0.953125 0 0  0.9609375 0 0  0.96875 0 0  0.9765625 0 0  0.984375 0 0  0.9921875 0 0  1 0 0  0 0.0078125 0  0.0078125 0.0078125 0  0.015625 0.0078125 0  0.0234375 0.0078125 0  0.03125 0.0078125 0  0.0390625 0.0078125 0  0.046875 0.0078125 0  0.0546875 0.0078125 0  0.0625 0.0078125 0  0.0703125 0.0078125 0  0.078125 0.0078125 0  0.0859375 0.0078125 0  0.09375 0.0078125 0  0.1015625 0.0078125 0  0.109375 0.0078125 0  0.1171875 0.0078125 0  0.125 0.0078125 0  0.1328125 0.0078125 0  0.140625 0.0078125 0  0.1484375 0.0078125 0  0.15625 0.0078125 0  0.1640625 0.0078125 0  0.171875 0.0078125 0  0.1796875 0.0078125 0  0.1875 0.0078125 0  0.1953125 0.0078125 0  0.203125 0.0078125 0  0.2109375 0.0078125 0  0.21875 0.0078125 0  0.2265625 0.0078125 0  0.234375 0.0078125 0  0.2421875 0.0078125 0  0.25 0.0078125 0  0.2578125 0.0078125 0  0.265625 0.0078125 0  0.2734375 0.0078125 0  0.28125 0.0078125 0  0.2890625 0.0078125 0  0.296875 0.0078125 0  0.3046875 0.0078125 0  0.3125 0.0078125 0  0.3203125 0.0078125 0  0.328125 0.0078125 0  0.3359375 0.0078125 0  0.34375 0.0078125 0  0.3515625 0.0078125 0  0.359375 0.0078125 0  0.3671875 0.0078125 0  0.375 0.0078125 0  0.3828125 0.0078125 0  0.390625 0.0078125 0  0.3984375 0.0078125 0  0.40625 0.0078125 0  0.4140625 0.0078125 0  0.421875 0.0078125 0  0.4296875 0.0078125 0  0.4375 0.0078125 0  0.4453125 0.0078125 0  0.453125 0.0078125 0  0.4609375 0.0078125 0  0.46875 0.0078125 0  0.4765625 0.0078125 0  0.484375 0.0078125 0  0.4921875 0.0078125 0  0.5 0.0078125 0  0.5078125 0.0078125 0  0.515625 0.0078125 0  0.5234375 0.0078125 0  0.53125 0.0078125 0  0.5390625 0.0078125 0  0.546875 0.0078125 0  0.5546875 0.0078125 0  0.5625 0.0078125 0  0.5703125 0.0078125 0  0.578125 0.0078125 0  0.5859375 0.0078125 0  0.59375 0.0078125 0  0.6015625 0.0078125 0  0.609375 0.0078125 0  0.6171875 0.0078125 0  0.625 0.0078125 0  0.6328125 0.0078125 0  0.640625 0.0078125 0  0.6484375 0.0078125 0  0.65625 0.0078125 0  0.6640625 0.0078125 0  0.671875 0.0078125 0  0.6796875 0.0078125 0  0.6875 0.0078125 0  0.6953125 0.0078125 0  0.703125 0.0078125 0  0.7109375 0.0078125 0  0.71875 0.0078125 0  0.7265625 0.0078125 0  0.734375 0.0078125 0  0.7421875 0.0078125 0  0.75 0.0078125 0  0.7578125 0.0078125 0  0.765625 0.0078125 0  0.7734375 0.0078125 0  0.78125 0.0078125 0  0.7890625 0.0078125 0  0.796875 0.0078125 0  0.8046875 0.0078125 0  0.8125 0.0078125 0  0.8203125 0.0078125 0  0.828125 0.0078125 0  0.8359375 0.0078125 0  0.84375 0.0078125 0  0.8515625 0.0078125 0  0.859375 0.0078125 0  0.8671875 0.0078125 0  0.875 0.0078125 0  0.8828125 0.0078125 0  0.890625 0.0078125 0  0.8984375 0.0078125 0  0.90625 0.0078125 0  0.9140625 0.0078125 0  0.921875 0.0078125 0  0.9296875 0.0078125 0  0.9375 0.0078125 0  0.9453125 0.0078125 0  0.953125 0.0078125 0  0.9609375 0.0078125 0  0.96875 0.0078125 0  0.9765625 0.0078125 0  0.984375 0.0078125 0  0.9921875 0.0078125 0  1 0.0078125 0  0 0.015625 0  0.0078125 0.015625 0  0.015625 0.015625 0  0.0234375 0.015625 0  0.03125 0.015625 0  0.0390625 0.015625 0  0.046875 0.015625 0  0.0546875 0.015625 0  0.0625 0.015625 0  0.0703125 0.015625 0  0.078125 0.015625 0  0.0859375 0.015625 0  0.09375 0.015625 0  0.1015625 0.015625 0  0.109375 0.015625 0  0.1171875 0.015625 0  0.125 0.015625 0  0.1328125 0.015625 0  0.140625 0.015625 0  0.1484375 0.015625 0  0.15625 0.015625 0  0.1640625 0.015625 0  0.171875 0.015625 0  0.1796875 0.015625 0  0.1875 0.015625 0  0.1953125 0.015625 0  0.203125 0.015625 0  0.2109375 0.015625 0  0.21875 0.015625 0  0.2265625 0.015625 0  0.234375 0.015625 0  0.2421875 0.015625 0  0.25 0.015625 0  0.2578125 0.015625 0  0.265625 0.015625 0  0.2734375 0.015625 0  0.28125 0.015625 0  0.2890625 0.015625 0  0.296875 0.015625 0  0.3046875 0.015625 0  0.3125 0.015625 0  0.3203125 0.015625 0  0.328125 0.015625 0  0.3359375 0.015625 0  0.34375 0.015625 0  0.3515625 0.015625 0  0.359375 0.015625 0  0.3671875 0.015625 0  0.375 0.015625 0  0.3828125 0.015625 0  0.390625 0.015625 0  0.3984375 0.015625 0  0.40625 0.015625 0  0.4140625 0.015625 0  0.421875 0.015625 0  0.4296875 0.015625 0  0.4375 0.015625 0  0.4453125 0.015625 0  0.453125 0.015625 0  0.4609375 0.015625 0  0.46875 0.015625 0  0.4765625 0.015625 0  0.484375 0.015625 0  0.4921875 0.015625 0  0.5 0.015625 0  0.5078125 0.015625 0  0.515625 0.015625 0  0.5234375 0.015625 0  0.53125 0.015625 0  0.5390625 0.015625 0  0.546875 0.015625 0  0.5546875 0.015625 0  0.5625 0.015625 0  0.5703125 0.015625 0  0.578125 0.015625 0  0.5859375 0.015625 0  0.59375 0.015625 0  0.6015625 0.015625 0  0.609375 0.015625 0  0.6171875 0.015625 0  0.625 0.015625 0  0.6328125 0.015625 0  0.640625 0.015625 0  0.6484375 0.015625 0  0.65625 0.015625 0  0.6640625 0.015625 0  0.671875 0.015625 0  0.6796875 0.015625 0  0.6875 0.015625 0  0.6953125 0.015625 0  0.703125 0.015625 0  0.7109375 0.015625 0  0.71875 0.015625 0  0.7265625 0.015625 0  0.734375 0.015625 0  0.7421875 0.015625 0  0.75 0.015625 0  0.7578125 0.015625 0  0.765625 0.015625 0  0.7734375 0.015625 0  0.78125 0.015625 0  0.7890625 0.015625 0  0.796875 0.015625 0  0.8046875 0.015625 0  0.8125 0.015625 0  0.8203125 0.015625 0  0.828125 0.015625 0  0.8359375 0.015625 0  0.84375 0.015625 0  0.8515625 0.015625 0  0.859375 0.015625 0  0.8671875 0.015625 0  0.875 0.015625 0  0.8828125 0.015625 0  0.890625 0.015625 0  0.8984375 0.015625 0  0.90625 0.015625 0  0.9140625 0.015625 0  0.921875 0.015625 0  0.9296875 0.015625 0  0.9375 0.015625 0  0.9453125 0.015625 0  0.953125 0.015625 0  0.9609375 0.015625 0  0.96875 0.015625 0  0.9765625 0.015625 0  0.984375 0.015625 0  0.9921875 0.015625 0  1 0.015625 0  0 0.0234375 0  0.0078125 0.0234375 0  0.015625 0.0234375 0  0.0234375 0.0234375 0  0.03125 0.0234375 0  0.0390625 0.0234375 0  0.046875 0.0234375 0  0.0546875 0.0234375 0  0.0625 0.0234375 0  0.0703125 0.0234375 0  0.078125 0.0234375 0  0.0859375 0.0234375 0  0.09375 0.0234375 0  0.1015625 0.0234375 0  0.109375 0.0234375 0  0.1171875 0.0234375 0  0.125 0.0234375 0  0.1328125 0.0234375 0  0.140625 0.0234375 0  0.1484375 0.0234375 0  0.15625 0.0234375 0  0.1640625 0.0234375 0  0.171875 0.0234375 0  0.1796875 0.0234375 0  0.1875 0.0234375 0  0.1953125 0.0234375 0  0.203125 0.0234375 0  0.2109375 0.0234375 0  0.21875 0.0234375 0  0.2265625 0.0234375 0  0.234375 0.0234375 0  0.2421875 0.0234375 0  0.25 0.0234375 0  0.2578125 0.0234375 0  0.265625 0.0234375 0  0.2734375 0.0234375 0  0.28125 0.0234375 0  0.2890625 0.0234375 0  0.296875 0.0234375 0  0.3046875 0.0234375 0  0.3125 0.0234375 0  0.3203125 0.0234375 0  0.328125 0.0234375 0  0.3359375 0.0234375 0  0.34375 0.0234375 0  0.3515625 0.0234375 0  0.359375 0.0234375 0  0.3671875 0.0234375 0  0.375 0.0234375 0  0.3828125 0.0234375 0  0.390625 0.0234375 0  0.3984375 0.0234375 0  0.40625 0.0234375 0  0.4140625 0.0234375 0  0.421875 0.0234375 0  0.4296875 0.0234375 0  0.4375 0.0234375 0  0.4453125 0.0234375 0  0.453125 0.0234375 0  0.4609375 0.0234375 0  0.46875 0.0234375 0  0.4765625 0.0234375 0  0.484375 0.0234375 0  0.4921875 0.0234375 0  0.5 0.0234375 0  0.5078125 0.0234375 0  0.515625 0.0234375 0  0.5234375 0.0234375 0  0.53125 0.0234375 0  0.5390625 0.0234375 0  0.546875 0.0234375 0  0.5546875 0.0234375 0  0.5625 0.0234375 0  0.5703125 0.0234375 0  0.578125 0.0234375 0  0.5859375 0.0234375 0  0.59375 0.0234375 0  0.6015625 0.0234375 0  0.609375 0.0234375 0  0.6171875 0.0234375 0  0.625 0.0234375 0  0.6328125 0.0234375 0  0.640625 0.0234375 0  0.6484375 0.0234375 0  0.65625 0.0234375 0  0.6640625 0.0234375 0  0.671875 0.0234375 0  0.6796875 0.0234375 0  0.6875 0.0234375 0  0.6953125 0.0234375 0  0.703125 0.0234375 0  0.7109375 0.0234375 0  0.71875 0.0234375 0  0.7265625 0.0234375 0  0.734375 0.0234375 0  0.7421875 0.0234375 0  0.75 0.0234375 0  0.7578125 0.0234375 0  0.765625 0.0234375 0  0.7734375 0.0234375 0  0.78125 0.0234375 0  0.7890625 0.0234375 0  0.796875 0.0234375 0  0.8046875 0.0234375 0  0.8125 0.0234375 0  0.8203125 0.0234375 0  0.828125 0.0234375 0  0.8359375 0.0234375 0  0.84375 0.0234375 0  0.8515625 0.0234375 0  0.859375 0.0234375 0  0.8671
[...]
<PointData  Scalars="f_11314"> 
<DataArray  type="Float64"  Name="f_11314"  format="ascii">-9.9418158880290519e-01  -9.9388215989577977e-01  -9.9298405353918084e-01  -9.9148781071879510e-01  -9.8939433271534971e-01  -9.8670488056171335e-01  -9.8342107428329872e-01  -9.7954489192221827e-01  -9.7507866834578649e-01  -9.7002509384008317e-01  -9.6438721248942494e-01  -9.5816842034272365e-01  -9.5137246336783288e-01  -9.4400343519511709e-01  -9.3606577465160179e-01  -9.2756426308719009e-01  -9.1850402149455634e-01  -9.0889050742445199e-01  -8.9872951169828008e-01  -8.8802715491992212e-01  -8.7678988378891454e-01  -8.6502446721719806e-01  -8.5273799225177793e-01  -8.3993785980575275e-01  -8.2663178020028005e-01  -8.1282776852016791e-01  -7.9853413978588705e-01  -7.8375950394491400e-01  -7.6851276068541996e-01  -7.5280309407543200e-01  -7.3663996703069379e-01  -7.2003311561455896e-01  -7.0299254317335014e-01  -6.8552851431071793e-01  -6.6765154870462717e-01  -6.4937241477069629e-01  -6.3070212317570595e-01  -6.1165192020518611e-01  -5.9223328098907313e-01  -5.7245790258952078e-01  -5.5233769695502843e-01  -5.3188478374512715e-01  -5.1111148302995069e-01  -4.9003030786908652e-01  -4.6865395677417548e-01  -4.4699530605980353e-01  -4.2506740208729255e-01  -4.0288345340605780e-01  -3.8045682279727411e-01  -3.5780101922463425e-01  -3.3492968969705511e-01  -3.1185661104823048e-01  -2.8859568163797994e-01  -2.6516091298039846e-01  -2.4156642130384273e-01  -2.1782641904784367e-01  -1.9395520630206486e-01  -1.6996716219246194e-01  -1.4587673621983563e-01  -1.2169843955599323e-01  -9.7446836302760034e-02  -7.3136534719109761e-02  -4.8782178421696076e-02  -2.4398437564084087e-02  -6.0876065024935396e-17  2.4398437564083969e-02  4.8782178421695958e-02  7.3136534719109636e-02  9.7446836302759923e-02  1.2169843955599310e-01  1.4587673621983552e-01  1.6996716219246183e-01  1.9395520630206473e-01  2.1782641904784358e-01  2.4156642130384262e-01  2.6516091298039834e-01  2.8859568163797977e-01  3.1185661104823031e-01  3.3492968969705500e-01  3.5780101922463414e-01  3.8045682279727400e-01  4.0288345340605769e-01  4.2506740208729221e-01  4.4699530605980364e-01  4.6865395677417537e-01  4.9003030786908641e-01  5.1111148302995069e-01  5.3188478374512693e-01  5.5233769695502810e-01  5.7245790258952078e-01  5.9223328098907302e-01  6.1165192020518599e-01  6.3070212317570584e-01  6.4937241477069607e-01  6.6765154870462728e-01  6.8552851431071793e-01  7.0299254317335003e-01  7.2003311561455874e-01  7.3663996703069357e-01  7.5280309407543200e-01  7.6851276068541996e-01  7.8375950394491389e-01  7.9853413978588694e-01  8.1282776852016780e-01  8.2663178020028016e-01  8.3993785980575275e-01  8.5273799225177782e-01  8.6502446721719795e-01  8.7678988378891443e-01  8.8802715491992201e-01  8.9872951169828008e-01  9.0889050742445199e-01  9.1850402149455634e-01  9.2756426308718998e-01  9.3606577465160168e-01  9.4400343519511709e-01  9.5137246336783288e-01  9.5816842034272365e-01  9.6438721248942494e-01  9.7002509384008306e-01  9.7507866834578649e-01  9.7954489192221827e-01  9.8342107428329872e-01  9.8670488056171335e-01  9.8939433271534960e-01  9.9148781071879510e-01  9.9298405353918084e-01  9.9388215989577977e-01  9.9418158880290519e-01  7.5280309407543200e-01  7.5257636385805682e-01  7.5189630977973643e-01  7.5076334147961854e-01  7.4917814141544292e-01  7.4714166445245356e-01  7.4465513728822452e-01  7.4172005771374194e-01  7.3833819371119203e-01  7.3451158238899383e-01  7.3024252875472151e-01  7.2553360432665426e-01  7.2038764558478952e-01  7.1480775226225357e-01  7.0879728547813825e-01  7.0235986571288866e-01  6.9549937062746037e-01  6.8821993272756277e-01  6.8052593687439078e-01  6.7242201764334952e-01  6.6391305653235866e-01  6.5500417902142094e-01  6.4570075148522432e-01  6.3600837796063936e-01  6.2593289677105601e-01  6.1548037700959612e-01  6.0465711488331952e-01  5.9346962992062291e-01  5.8192466104412088e-01  5.7002916251137048e-01  5.5779029972588645e-01  5.4521544492097040e-01  5.3231217271895248e-01  5.1908825556852289e-01  5.0555165906289867e-01  4.9171053714164936e-01  4.7757322717906708e-01  4.6314824496204526e-01  4.4844427956048682e-01  4.3347018809333254e-01  4.1823499039336537e-01  4.0274786357399872e-01  3.8701813650132760e-01  3.7105528417476852e-01  3.5486892201967329e-01  3.3846880009535690e-01  3.2186479722202688e-01  3.0506691503015004e-01  2.8808527193584593e-01  2.7093009704592980e-01  2.5361172399628190e-01  2.3614058472725200e-01  2.1852720319984742e-01  2.0078218905649384e-01  1.8291623123018222e-01  1.6494009150585587e-01  1.4686459803791380e-01  1.2870063882773469e-01  1.1045915516515246e-01  9.2151135037832760e-02  7.3787606512519158e-02  5.5379631092138559e-02  3.6938297052766002e-02  1.8474712764460596e-02  4.6095894977385083e-17  -1.8474712764460506e-02  -3.6938297052765912e-02  -5.5379631092138462e-02  -7.3787606512519061e-02  -9.2151135037832677e-02  -1.1045915516515238e-01  -1.2870063882773461e-01  -1.4686459803791369e-01  -1.6494009150585578e-01  -1.8291623123018214e-01  -2.0078218905649375e-01  -2.1852720319984731e-01  -2.3614058472725188e-01  -2.5361172399628185e-01  -2.7093009704592974e-01  -2.8808527193584588e-01  -3.0506691503014999e-01  -3.2186479722202660e-01  -3.3846880009535696e-01  -3.5486892201967318e-01  -3.7105528417476846e-01  -3.8701813650132760e-01  -4.0274786357399855e-01  -4.1823499039336509e-01  -4.3347018809333254e-01  -4.4844427956048671e-01  -4.6314824496204515e-01  -4.7757322717906703e-01  -4.9171053714164920e-01  -5.0555165906289878e-01  -5.1908825556852289e-01  -5.3231217271895237e-01  -5.4521544492097029e-01  -5.5779029972588634e-01  -5.7002916251137048e-01  -5.8192466104412088e-01  -5.9346962992062280e-01  -6.0465711488331941e-01  -6.1548037700959612e-01  -6.2593289677105601e-01  -6.3600837796063936e-01  -6.4570075148522432e-01  -6.5500417902142083e-01  -6.6391305653235866e-01  -6.7242201764334952e-01  -6.8052593687439078e-01  -6.8821993272756277e-01  -6.9549937062746037e-01  -7.0235986571288855e-01  -7.0879728547813814e-01  -7.1480775226225357e-01  -7.2038764558478952e-01  -7.2553360432665426e-01  -7.3024252875472151e-01  -7.3451158238899372e-01  -7.3833819371119203e-01  -7.4172005771374194e-01  -7.4465513728822452e-01  -7.4714166445245356e-01  -7.4917814141544281e-01  -7.5076334147961854e-01  -7.5189630977973643e-01  -7.5257636385805682e-01  -7.5280309407543200e-01  -1.4587673621983582e-01  -1.4583280087422767e-01  -1.4570102130241253e-01  -1.4548147688347690e-01  -1.4517429986276950e-01  -1.4477967527224145e-01  -1.4429784081899019e-01  -1.4372908674207333e-01  -1.4307375563767977e-01  -1.4233224225276239e-01  -1.4150499324725727e-01  -1.4059250692503253e-01  -1.3959533293372856e-01  -1.3851407193367105e-01  -1.3734937523605542e-01  -1.3610194441062157e-01  -1.3477253086305421e-01  -1.3336193538236449e-01  -1.3187100765852439e-01  -1.3030064577064537e-01  -1.2865179564600909e-01  -1.2692545049027615e-01  -1.2512265018921614e-01  -1.2324448068231939e-01  -1.2129207330866756e-01  -1.1926660412545735e-01  -1.1716929319958752e-01  -1.1500140387273636e-01  -1.1276424200037169e-01  -1.1045915516515260e-01  -1.0808753186519587e-01  -1.0565080067769671e-01  -1.0315042939840718e-01  -1.0058792415749102e-01  -9.7964828512287133e-02  -9.5282722517528340e-02  -9.2543221773575463e-02  -8.9747976453240133e-02  -8.6898670307782394e-02  -8.3997019652681762e-02  -8.1044772333793258e-02  -7.8043706674510077e-02  -7.4995630404568331e-02  -7.1902379571138153e-02  -6.8765817432857451e-02  -6.5587833337474699e-02  -6.2370341583776537e-02  -5.9115280268485566e-02  -5.5824610118823600e-02  -5.2500313311442663e-02  -4.9144392278436047e-02  -4.5758868501148131e-02  -4.2345781292509384e-02  -3.8907186568630805e-02  -3.5445155610396691e-02  -3.1961773815802591e-02  -2.8459139443789583e-02  -2.4939362350331399e-02  -2.1404562717536164e-02  -1.7856869776528072e-02  -1.4298420524877968e-02  -1.0731358439356027e-02  -7.1578321847815844e-03  -3.5799943197475839e-03  -8.9323739040842367e-18  3.5799943197475661e-03  7.1578321847815679e-03  1.0731358439356008e-02  1.4298420524877951e-02  1.7856869776528055e-02  2.1404562717536147e-02  2.4939362350331382e-02  2.8459139443789565e-02  3.1961773815802577e-02  3.5445155610396677e-02  3.8907186568630792e-02  4.2345781292509356e-02  4.5758868501148103e-02  4.9144392278436033e-02  5.2500313311442642e-02  5.5824610118823580e-02  5.9115280268485552e-02  6.2370341583776495e-02  6.5587833337474713e-02  6.8765817432857437e-02  7.1902379571138125e-02  7.4995630404568331e-02  7.8043706674510049e-02  8.1044772333793202e-02  8.3997019652681762e-02  8.6898670307782366e-02  8.9747976453240119e-02  9.2543221773575449e-02  9.5282722517528312e-02  9.7964828512287147e-02  1.0058792415749102e-01  1.0315042939840716e-01  1.0565080067769668e-01  1.0808753186519585e-01  1.1045915516515260e-01  1.1276424200037169e-01  1.1500140387273634e-01  1.1716929319958751e-01  1.1926660412545732e-01  1.2129207330866758e-01  1.2324448068231939e-01  1.2512265018921612e-01  1.2692545049027612e-01  1.2865179564600907e-01  1.3030064577064537e-01  1.3187100765852439e-01  1.3336193538236449e-01  1.3477253086305421e-01  1.3610194441062157e-01  1.3734937523605542e-01  1.3851407193367105e-01  1.3959533293372856e-01  1.4059250692503253e-01  1.4150499324725727e-01  1.4233224225276236e-01  1.4307375563767977e-01  1.4372908674207333e-01  1.4429784081899019e-01  1.4477967527224145e-01  1.4517429986276947e-01  1.4548147688347690e-01  1.4570102130241253e-01  1.4583280087422767e-01  1.4587673621983582e-01  -5.3188478374512649e-01  -5.3172458999248906e-01  -5.3124410522930299e-01  -5.3044361888162361e-01  -5.2932361313249421e-01  -5.2788476263149853e-01  -5.2612793408837644e-01  -5.2405418575095009e-01  -5.2166476676767548e-01  -5.1896111643520193e-01  -5.1594486333139400e-01  -5.1261782433433623e-01  -5.0898200352791456e-01  -5.0503959099463058e-01  -5.0079296149637831e-01  -4.9624467304397540e-01  -4.9139746535631423e-01  -4.8625425821005730e-01  -4.8081814968087233e-01  -4.7509241427726834e-01  -4.6908050096815335e-01  -4.6278603110530475e-01  -4.5621279624200262e-01  -4.4936475584913954e-01  -4.4224603493018344e-01  -4.3486092153642969e-01  -4.2721386418403967e-01  -4.1930946917442047e-01  -4.1115249781956154e-01  -4.0274786357399822e-01  -3.9410062907513049e-01  -3.8521600309367965e-01  -3.7609933739611934e-01  -3.6675612352097153e-01  -3.5719198947090947e-01  -3.4741269632265903e-01  -3.3742413475674116e-01  -3.2723232150914688e-01  -3.1684339574708020e-01  -3.0626361537095304e-01  -2.9549935324486065e-01  -2.8455709335780610e-01  -2.7344342691798773e-01  -2.6216504838250243e-01  -2.5072875142485412e-01  -2.3914142484269918e-01  -2.2741004840829299e-01  -2.1554168866413490e-01  -2.0354349466634852e-01  -1.9142269367835663e-01  -1.7918658681744831e-01  -1.6684254465685933e-01  -1.5439800278601351e-01  -1.4186045733160269e-01  -1.2923746044219950e-01  -1.1653661573912569e-01  -1.0376557373631549e-01  -9.0932027231931251e-02  -7.8043706674509883e-02  -6.5108375506430075e-02  -5.2133825487504143e-02  -3.9127872001513728e-02  -2.6098349348515085e-02  -1.3053106025748919e-02  -3.2568549896432560e-17  1.3053106025748853e-02  2.6098349348515019e-02  3.9127872001513658e-02  5.2133825487504074e-02  6.5108375506430005e-02  7.8043706674509827e-02  9.0932027231931181e-02  1.0376557373631543e-01  1.1653661573912563e-01  1.2923746044219941e-01  1.4186045733160263e-01  1.5439800278601343e-01  1.6684254465685924e-01  1.7918658681744826e-01  1.9142269367835657e-01  2.0354349466634847e-01  2.1554168866413484e-01  2.2741004840829282e-01  2.3914142484269924e-01  2.5072875142485407e-01  2.6216504838250237e-01  2.7344342691798773e-01  2.8455709335780593e-01  2.9549935324486049e-01  3.0626361537095304e-01  3.1684339574708015e-01  3.2723232150914683e-01  3.3742413475674105e-01  3.4741269632265886e-01  3.5719198947090958e-01  3.6675612352097153e-01  3.7609933739611928e-01  3.8521600309367954e-01  3.9410062907513033e-01  4.0274786357399822e-01  4.1115249781956154e-01  4.1930946917442041e-01  4.2721386418403962e-01  4.3486092153642963e-01  4.4224603493018350e-01  4.4936475584913954e-01  4.5621279624200256e-01  4.6278603110530470e-01  4.6908050096815329e-01  4.7509241427726828e-01  4.8081814968087233e-01  4.8625425821005730e-01  4.9139746535631423e-01  4.9624467304397535e-01  5.0079296149637820e-01  5.0503959099463058e-01  5.0898200352791456e-01  5.1261782433433623e-01  5.1594486333139400e-01  5.1896111643520193e-01  5.2166476676767548e-01  5.2405418575095009e-01  5.2612793408837644e-01  5.2788476263149853e-01  5.2932361313249410e-01  5.3044361888162361e-01  5.3124410522930299e-01  5.3172458999248906e-01  5.3188478374512649e-01  9.5137246336783277e-01  9.5108592776892020e-01  9.5022649357051325e-01  9.4879467846363641e-01  9.4679134492017136e-01  9.4421769967333491e-01  9.4107529299078929e-01  9.3736601774081763e-01  9.3309210825213196e-01  9.2825613896799641e-01  9.2286102289547922e-01  9.1691000985076609e-01  9.1040668450159246e-01  9.0335496420797368e-01  8.9575909666253373e-01  8.8762365733185444e-01  8.7895354670038461e-01  8.6975398731857267e-01  8.6003052065699614e-01  8.4978900376838851e-01  8.3903560575956815e-01  8.2777680407540044e-01  8.1601938059702606e-01  8.0377041755670986e-01  7.9103729327176930e-01  7.7782767770015149e-01  7.6414952782033729e-01  7.5001108283835538e-01  7.3542085922479239e-01  7.2038764558478940e-01  7.0492049736411522e-01  6.8902873139450427e-01  6.7272192028154487e-01  6.5600988663850068e-01  6.3890269716953496e-01  6.2141065660590511e-01  6.0354430149877691e-01  5.8531439387240092e-01  5.6673191474147111e-01  5.4780805749657213e-01  5.2855422116169992e-01  5.0898200352791512e-01  4.8910319416726805e-01  4.6892976733120129e-01  4.4847387473770750e-01  4.2774783825158980e-01  4.0676414246223147e-01  3.8553542716334466e-01  3.6407447973923296e-01  3.4239422746214798e-01  3.2050772970538444e-01  2.9842817007680250e-01  2.7616884847751411e-01  2.5374317309052141e-01  2.3116465230412744e-01  2.0844688657498830e-01  1.8560356023570773e-01  1.6264843325190531e-01  1.3959533293372836e-01  1.1645814560679806e-01  9.3250808247604774e-02  6.9987300088395238e-02  4.6681634196606349e-02  2.3347849033915961e-02  5.8254762103017450e-17  -2.3347849033915846e-02  -4.6681634196606238e-02  -6.9987300088395113e-02  -9.3250808247604663e-02  -1.1645814560679794e-01  -1.3959533293372825e-01  -1.6264843325190520e-01  -1.8560356023570759e-01  -2.0844688657498822e-01  -2.3116465230412733e-01  -2.5374317309052136e-01  -2.7616884847751394e-01  -2.9842817007680239e-01  -3.2050772970538433e-01  -3.4239422746214787e-01  -3.6407447973923285e-01  -3.8553542716334455e-01  -4.0676414246223114e-01  -4.2774783825158991e-01  -4.4847387473770739e-01  -4.6892976733120117e-01  -4.8910319416726805e-01  -5.0898200352791501e-01  -5.2855422116169959e-01  -5.4780805749657213e-01  -5.6673191474147100e-01  -5.8531439387240081e-01  -6.0354430149877680e-01  -6.2141065660590489e-01  -6.3890269716953507e-01  -6.5600988663850068e-01  -6.7272192028154476e-01  -6.8902873139450405e-01  -7.0492049736411500e-01  -7.2038764558478940e-01  -7.3542085922479239e-01  -7.5001108283835527e-01  -7.6414952782033718e-01  -7.7782767770015138e-01  -7.9103729327176941e-01  -8.0377041755670986e-01  -8.1601938059702595e-01  -8.2777680407540033e-01  -8.3903560575956804e-01  -8.4978900376838840e-01  -8.6003052065699614e-01  -8.6975398731857267e-01  -8.7895354670038461e-01  -8.8762365733185433e-01  -8.9575909666253362e-01  -9.0335496420797368e-01  -9.1040668450159246e-01  -9.1691000985076609e-01  -9.2286102289547922e-01  -9.2825613896799630e-01  -9.3309210825213196e-01  -9.3736601774081763e-01  -9.4107529299078929e-01  -9.4421769967333491e-01  -9.4679134492017125e-01  -9.4879467846363641e-01  -9.5022649357051325e-01  -9.5108592776892020e-01  -9.5137246336783277e-01  -9.0889050742445199e-01  -9.0861676659641821e-01  -9.0779570900355611e-01  -9.0642782922025811e-01  -9.0451395120615752e-01  -9.0205522780980540e-01  -8.9905314007423831e-01  -8.9550949634485244e-01  -8.9142643118012543e-01  -8.8680640406583688e-01  -8.8165219793356608e-01  -8.7596691748435929e-01  -8.6975398731857279e-01  -8.6301714987302180e-01  -8.5576046316667709e-01  -8.4798829835626555e-01  -8.3970533710324891e-01  -8.3091656875376618e-01  -8.2162728733323798e-01  -8.1184308835744334e-01  -8.0156986546199060e-01  -7.9081380685221137e-01  -7.7958139157561723e-01  -7.6787938561916358e-01  -7.5571483783367266e-01  -7.4309507568786859e-01  -7.3002770085458479e-01  -7.1652058463180024e-01  -7.0258186320126370e-01  -6.8821993272756277e-01  -6.7344344430058756e-01  -6.5826129872443795e-01  -6.4268264115591212e-01  -6.2671685559580581e-01  -6.1037355923634118e-01  -5.9366259666813004e-01  -5.7659403395016029e-01  -5.5917815254637859e-01  -5.4142544313252094e-01  -5.2334659927692151e-01  -5.0495251099910732e-01  -4.8625425821005791e-01  -4.6726310403808047e-01  -4.4799048804432351e-01  -4.2844801933201199e-01  -4.0864746955355791e-01  -3.8860076581975816e-01  -3.6831998351534689e-01  -3.4781733902523748e-01  -3.2710518237582720e-01  -3.0619598979580409e-01  -2.8510235620093377e-01  -2.6383698760735153e-01  -2.4241269347793523e-01  -2.2084237900636222e-01  -1.9913903734350408e-01  -1.7731574177083861e-01  -1.5538563782559300e-01  -1.3336193538236432e-01  -1.1125790069598547e-01  -8.9086848410428202e-02  -6.6862133538560117e-02  -4.4597143417584820e-02  -2.2305289645009163e-02  -5.5653492534638440e-17  2.2305289645009052e-02  4.4597143417584709e-02  6.6862133538560006e-02  8.9086848410428091e-02  1.1125790069598535e-01  1.3336193538236421e-01  1.5538563782559289e-01  1.7731574177083850e-01  1.9913903734350397e-01  2.2084237900636211e-01  2.4241269347793512e-01  2.6383698760735136e-01  2.8510235620093360e-01  3.0619598979580404e-01  3.2710518237582709e-01  3.4781733902523737e-01  3.6831998351534678e-01  3.8860076581975783e-01  4.0864746955355802e-01  4.2844801933201188e-01  4.4799048804432345e-01  4.6726310403808047e-01  4.8625425821005769e-01  5.0495251099910710e-01  5.2334659927692151e-01  5.4142544313252083e-01  5.5917815254637848e-01  5.7659403395016029e-01  5.9366259666812982e-01  6.1037355923634129e-01  6.2671685559580581e-01  6.4268264115591212e-01  6.5826129872443773e-01  6.7344344430058733e-01  6.8821993272756277e-01  7.0258186320126370e-01  7.1652058463180013e-01  7.3002770085458479e-01  7.4309507568786848e-01  7.5571483783367277e-01  7.6787938561916358e-01  7.7958139157561712e-01  7.9081380685221125e-01  8.0156986546199049e-01  8.1184308835744334e-01  8.2162728733323798e-01  8.3091656875376618e-01  8.3970533710324891e-01  8.4798829835626544e-01  8.5576046316667698e-01  8.6301714987302180e-01  8.6975398731857279e-01  8.7596691748435929e-01  8.8165219793356608e-01  8.8680640406583677e-01  8.9142643118012543e-01  8.9550949634485244e-01  8.9905314007423831e-01  9.0205522780980540e-01  9.0451395120615752e-01  9.0642782922025811e-01  9.0779570900355611e-01  9.0861676659641821e-01  9.0889050742445199e-01  4.2506740208729377e-01  4.2493937973293200e-01  4.2455538978572599e-01  4.2391566354686161e-01  4.2302058636350426e-01  4.2187069739668004e-01  4.2046668929650549e-01  4.1880940778496090e-01  4.1689985114645911e-01  4.1473916962651614e-01  4.1232866473888669e-01  4.0966978848158025e-01  4.0676414246223269e-01  4.0361347693335675e-01  4.0021968973805622e-01  3.9658482516683558e-01  3.9271107272619610e-01  3.8860076581975928e-01  3.8425638034271109e-01  3.7968053319041611e-01  3.7487598068209671e-01  3.6984561690053019e-01  3.6459247194876121e-01  3.5911971012488092e-01  3.5343062801597225e-01  3.4752865251236920e-01  3.4141733874342595e-01  3.3510036793604031e-01  3.2858154519721977e-01  3.2186479722202777e-01  3.1495416992828917e-01  3.0785382601948080e-01  3.0056804247727420e-01  2.9310120798524236e-01  2.8545782028528027e-01  2.7764248346833381e-01  2.6965990520106708e-01  2.6151489389014054e-01  2.5321235578580648e-01  2.4475729